6
Energy = -7968.325408579219 kcal/mol
C     -0.942340  0.120521 -0.000000
Cl      0.829877  0.120584 -0.000001
H     -1.288771  1.073916 -0.386758
H     -1.288727 -0.021265  1.019058
H     -1.288701 -0.691146 -0.632299
Cl     -4.471978  0.119180  0.000000
