9
Energy = -10396.288672673469 kcal/mol
C     -2.462616  0.181886 -0.140856
C     -1.109437  0.650617 -0.186220
O     -3.154726  0.145654  0.874802
C     -0.500653  1.097042  0.942297
O     -1.067607  1.139171  2.125802
H     -2.884896 -0.163634 -1.098297
H     -1.994774  0.792134  2.029966
H     -0.585233  0.643496 -1.124783
H      0.522681  1.457623  0.938300
