6
Energy = -601.410936641382 kcal/mol
C     -1.077364 -0.865009 -0.000000
H     -0.569017 -1.809963  0.000000
H     -2.149881 -0.897752  0.000000
C     -0.421333  0.271877  0.000000
H     -0.929692  1.216830 -0.000000
H      0.651186  0.304617 -0.000000
