10
	Energy:     -68.1264726
C          0.57617       -0.02399       -0.09476
O          1.01079       -0.47584        0.95299
H          0.83003       -0.37657       -1.10536
O         -0.29749        0.99287       -0.14357
H         -0.48980        1.25733        0.79432
C         -0.25035        0.92280        3.46649
O         -0.63425        1.41846        2.41907
O          0.63276       -0.08597        3.51545
H         -0.56533        1.22230        4.47714
H          0.86902       -0.31229        2.57763
