14
	Energy:       1.7765498
C         -1.76196       -0.69050       -0.27723
H         -0.65358       -0.69783       -0.35322
H         -2.14071       -1.70700       -0.51440
H         -2.17407        0.02538       -1.02004
C         -2.19314       -0.29997        1.13325
H         -3.30357       -0.32216        1.18960
C         -1.68659        1.09965        1.49876
H         -1.78454       -1.04446        1.85102
H         -2.10050        1.84522        0.78495
H         -0.57668        1.12352        1.43594
C         -2.10622        1.48470        2.91423
H         -3.21365        1.48993        3.00164
H         -1.72557        2.50029        3.15222
H         -1.68532        0.76630        3.64981
