18
	Energy:     -98.8562811
C         -0.33568        2.72682       -0.24117
O          0.48249        2.32171        0.63887
H          0.09834        2.98456       -1.25021
O         -1.57550        2.86447       -0.08840
C         -0.16840        0.30076        3.05037
H          0.91730        0.17942        3.00355
H         -0.63646       -0.24948        2.22946
N         -0.48814        1.73813        2.89840
H         -0.55351       -0.04144        4.01467
C         -1.94538        2.02682        2.76595
H         -2.35782        1.39472        1.97556
H         -2.07206        3.08488        2.52313
H         -2.42501        1.79783        3.72181
C          0.22537        2.64206        3.82834
H          1.29774        2.44193        3.75329
H         -0.13256        2.45031        4.84345
H          0.02182        3.67566        3.53515
H         -0.09269        1.98757        1.94609
