11
Energy = -6586.713567040713 kcal/mol
C     -3.740470  0.962270 -0.360595
H     -2.987966  1.692324 -0.647318
H     -4.634589  1.157712 -0.946950
C     -4.035178  1.026221  1.145002
H     -3.370513 -0.022065 -0.636937
H     -3.438623  1.814958  1.606981
C     -3.734359 -0.292758  1.848057
H     -5.084246  1.280029  1.307556
H     -2.685502 -0.557003  1.730448
H     -4.340309 -1.094212  1.430642
H     -3.951353 -0.217816  2.911583
