85
Energy = -92029.77142771718 kcal/mol
O     -3.879551 -2.943722 -4.549980
C     -4.654958 -2.390278 -5.338306
N     -4.393113 -1.181067 -5.816267
C     -3.136684 -0.515748 -5.452657
C     -3.406253  0.943109 -5.846964
C     -4.314569  0.817680 -7.069389
C     -5.182605 -0.403353 -6.757161
C     -1.976529 -1.129656 -6.237343
C     -2.847685 -0.639536 -3.943439
N     -3.914772 -0.383289 -3.149211
C     -3.828901 -0.425667 -1.719548
C     -3.158377  0.744183 -1.031112
C     -4.639247  0.604681 -0.967866
C     -3.662806 -1.764881 -1.058499
N     -3.800414 -2.826976 -1.878303
C     -3.527738 -4.173334 -1.463885
H     -3.159097 -4.125887 -0.424391
N     -2.543222 -4.819254 -2.297880
S     -3.020508 -5.716522 -3.635447
C     -2.667610 -7.399144 -3.153036
C     -1.733852 -7.673562 -2.173471
C     -1.471023 -8.995284 -1.847053
C     -2.134922 -10.019564 -2.504489
C     -3.064214 -9.730640 -3.491645
C     -3.332638 -8.411096 -3.820287
O     -4.448551 -5.613420 -3.848967
O     -2.151061 -5.375658 -4.729258
C     -4.815748 -5.007182 -1.468184
O     -4.563657 -6.262698 -1.148525
C     -5.680493 -7.160548 -1.127094
O     -5.911363 -4.541050 -1.653828
O     -3.452482 -1.876309  0.139709
O     -1.731717 -0.844016 -3.506882
C     -5.921638 -3.139384 -5.774115
H     -6.427717 -2.620405 -6.591872
C     -6.861961 -3.359761 -4.584140
C     -7.295786 -2.097562 -3.914603
O     -8.478884 -2.262475 -3.333747
O     -8.937872 -1.136996 -2.631805
H     -8.210649 -0.479959 -2.735103
O     -6.695799 -1.045013 -3.863256
N     -5.515776 -4.449035 -6.252443
C     -4.676012 -4.503488 -7.334002
O     -4.158408 -5.723412 -7.433311
C     -3.156283 -6.047333 -8.438776
C     -1.949432 -5.121870 -8.283038
C     -2.765447 -7.489071 -8.108887
C     -3.761228 -5.953457 -9.839969
O     -4.518429 -3.573965 -8.100723
H     -2.481999  1.474053 -6.061895
H     -3.927074  1.457922 -5.038593
H     -3.720735  0.638620 -7.964477
H     -4.915664  1.710310 -7.227133
H     -5.391383 -0.992145 -7.652811
H     -6.124441 -0.110197 -6.283358
H     -2.140081 -1.025606 -7.305953
H     -1.895612 -2.187763 -5.995012
H     -1.046165 -0.645016 -5.954411
H     -4.843309 -0.378392 -3.553071
H     -2.729252  1.501623 -1.667700
H     -2.584358  0.513545 -0.147322
H     -5.247911  1.271660 -1.559122
H     -5.081701  0.288301 -0.035754
H     -3.894464 -2.709519 -2.886013
H     -1.782018 -4.202344 -2.545397
H     -1.235193 -6.859936 -1.673537
H     -0.747080 -9.222555 -1.079520
H     -4.052319 -8.151144 -4.580949
H     -5.280348 -8.116618 -0.801394
H     -6.108619 -7.235083 -2.127532
H     -6.440684 -6.794416 -0.435170
H     -6.326367 -3.945685 -3.825095
H     -7.736527 -3.935176 -4.888884
H     -5.260552 -5.090347 -5.503709
H     -1.639461 -5.106456 -7.238803
H     -2.204412 -4.109534 -8.586587
H     -1.127345 -5.479609 -8.896236
H     -2.328537 -7.528196 -7.114099
H     -2.042018 -7.850860 -8.833191
H     -3.645069 -8.127081 -8.131946
H     -4.078756 -4.934133 -10.044104
H     -4.623095 -6.612315 -9.921219
H     -3.018868 -6.246124 -10.576840
H     -1.926693 -11.047122 -2.247032
H     -3.579008 -10.527604 -4.005895
