5
Energy = -7080.18946688417 kcal/mol
C      0.482857 -0.042310  0.035962
O      0.829863 -0.594674  1.034576
H      0.704663 -0.392296 -0.982703
O     -0.221364  1.075016 -0.020955
H     -0.424518  1.395664  0.874420
