11
	Energy:       3.9169580
C          1.35547        0.37143       -0.33420
N          0.18718        0.00469        0.46926
C         -0.84701        1.03891        0.39237
H          1.80184        1.32138        0.03380
H          2.12564       -0.42634       -0.26047
H          1.07489        0.48687       -1.40425
H         -1.72155        0.74013        1.00957
H         -1.19061        1.17249       -0.65698
H         -0.46213        2.00784        0.77981
H          0.48014       -0.11466        1.46691
H         -0.20374       -0.89911        0.11469
